Written by MDAnalysis
 1024
    1SOL      O    1   1.691   0.182   2.128
    2SOL      O    2   2.073   0.445   1.907
    3SOL      O    3   2.206   0.543   2.126
    4SOL      O    4   2.219   0.403   2.352
    5SOL      O    5   1.628   0.141   2.155
    6SOL      O    6   2.108   0.687   2.462
    7SOL      O    7   2.081   0.170   1.908
    8SOL      O    8   2.077  -0.064   2.385
    9SOL      O    9   1.535   0.537   2.482
   10SOL      O   10   1.696   0.456   2.131
   11SOL      O   11   1.818   0.546   1.902
   12SOL      O   12   1.821   0.082   1.908
   13SOL      O   13   2.207   0.087   2.137
   14SOL      O   14   2.187   0.113   2.602
   15SOL      O   15   2.287   0.763   2.658
   16SOL      O   16   1.738   0.024   2.590
   17SOL      O   17   0.222   0.675   0.428
   18SOL      O   18   0.558   1.075   0.237
   19SOL      O   19   0.602   1.104   0.482
   20SOL      O   20   0.557   1.203   0.506
   21SOL      O   21   0.084   0.940   0.698
   22SOL      O   22  -0.031   1.427   0.335
   23SOL      O   23   0.608   0.850   0.290
   24SOL      O   24   0.520   1.061   0.480
   25SOL      O   25   0.032   1.086   0.724
   26SOL      O   26  -0.007   1.124   0.271
   27SOL      O   27   0.237   1.084  -0.102
   28SOL      O   28   0.322   0.802   0.116
   29SOL      O   29   0.778   0.838   0.445
   30SOL      O   30   0.814   0.935   0.728
   31SOL      O   31   0.738   1.176   0.632
   32SOL      O   32   0.180   0.833   0.979
   33SOL      O   33   1.683   1.645   2.132
   34SOL      O   34   2.073   1.907   1.907
   35SOL      O   35   2.206   2.006   2.126
   36SOL      O   36   2.188   1.680   2.183
   37SOL      O   37   1.730   1.485   2.506
   38SOL      O   38   1.892   1.955   2.332
   39SOL      O   39   2.073   1.633   1.913
   40SOL      O   40   2.146   1.819   2.443
   41SOL      O   41   1.569   1.859   2.920
   42SOL      O   42   1.696   1.919   2.131
   43SOL      O   43   1.818   2.009   1.902
   44SOL      O   44   1.811   1.551   1.908
   45SOL      O   45   2.202   1.541   2.137
   46SOL      O   46   2.209   1.407   2.801
   47SOL      O   47   2.111   1.997   2.320
   48SOL      O   48   1.503   1.918   2.384
   49SOL      O   49   1.939   0.911   0.494
   50SOL      O   50   2.035   1.040  -0.035
   51SOL      O   51   2.249   1.410   0.392
   52SOL      O   52   2.229   1.410   0.529
   53SOL      O   53   2.068   0.667   0.583
   54SOL      O   54   1.760   1.278   0.600
   55SOL      O   55   2.039   0.844   0.169
   56SOL      O   56   1.953   0.877   0.488
   57SOL      O   57   1.869   1.487   0.736
   58SOL      O   58   1.583   1.110   0.420
   59SOL      O   59   1.834   1.239   0.414
   60SOL      O   60   1.831   0.996   0.385
   61SOL      O   61   1.898   0.870   0.542
   62SOL      O   62   2.394   0.951   0.641
   63SOL      O   63   1.914   1.157   0.782
   64SOL      O   64   1.459   1.070   0.995
   65SOL      O   65   0.164   0.837   3.074
   66SOL      O   66   0.444   1.264   2.820
   67SOL      O   67   0.778   1.424   3.208
   68SOL      O   68   0.724   1.281   2.966
   69SOL      O   69   0.111   0.737   3.252
   70SOL      O   70   0.177   1.446   3.305
   71SOL      O   71   0.403   0.991   2.855
   72SOL      O   72   0.365   0.938   3.580
   73SOL      O   73   0.239   0.922   3.606
   74SOL      O   74   0.009   0.971   2.951
   75SOL      O   75   0.315   1.353   2.853
   76SOL      O   76   0.475   0.729   2.960
   77SOL      O   77   0.554   0.809   3.091
   78SOL      O   78   0.737   1.022   3.361
   79SOL      O   79   0.612   1.431   3.531
   80SOL      O   80   0.089   0.927   3.419
   81SOL      O   81   0.034   2.134   0.383
   82SOL      O   82   0.315   2.301   0.217
   83SOL      O   83   0.725   2.450   0.559
   84SOL      O   84   0.773   2.892   0.492
   85SOL      O   85   0.384   2.397   0.591
   86SOL      O   86   0.482   2.764   0.526
   87SOL      O   87   0.437   2.408  -0.138
   88SOL      O   88   0.802   2.379   0.614
   89SOL      O   89   0.052   2.847   0.741
   90SOL      O   90   0.177   2.790   0.153
   91SOL      O   91   0.324   2.933   0.193
   92SOL      O   92   0.198   2.349   0.132
   93SOL      O   93   0.579   2.131   0.592
   94SOL      O   94   0.818   2.251   0.691
   95SOL      O   95   0.614   2.846   0.830
   96SOL      O   96  -0.317   2.260   0.755
   97SOL      O   97   1.679   0.790   2.754
   98SOL      O   98   2.053   1.377   2.786
   99SOL      O   99   2.203   1.310   2.927
  100SOL      O  100   2.043   0.999   2.903
  101SOL      O  101   1.673   0.748   3.553
  102SOL      O  102   1.892   1.173   3.186
  103SOL      O  103   2.056   0.990   2.973
  104SOL      O  104   1.938   0.717   3.267
  105SOL      O  105   1.670   1.219   3.325
  106SOL      O  106   1.401   1.113   3.089
  107SOL      O  107   1.715   1.060   2.811
  108SOL      O  108   1.643   0.628   2.720
  109SOL      O  109   2.164   0.812   3.009
  110SOL      O  110   2.209   0.616   3.485
  111SOL      O  111   2.095   1.161   3.394
  112SOL      O  112   1.821   0.859   3.322
  113SOL      O  113   0.421   2.372   3.005
  114SOL      O  114   0.240   2.800   2.711
  115SOL      O  115   0.670   2.702   3.110
  116SOL      O  116   0.550   2.705   3.319
  117SOL      O  117   0.537   2.441   3.158
  118SOL      O  118   0.239   2.919   3.197
  119SOL      O  119   0.478   2.396   3.109
  120SOL      O  120   0.473   2.454   3.501
  121SOL      O  121   0.211   2.554   3.643
  122SOL      O  122   0.124   2.829   3.189
  123SOL      O  123   0.271   2.674   2.599
  124SOL      O  124   0.375   2.550   2.837
  125SOL      O  125   0.675   2.337   3.058
  126SOL      O  126   0.861   2.342   3.399
  127SOL      O  127   0.508   2.627   3.517
  128SOL      O  128   0.164   2.521   3.547
  129SOL      O  129   2.576   1.593   1.160
  130SOL      O  130   2.708   1.866   1.082
  131SOL      O  131   2.918   1.922   1.320
  132SOL      O  132   2.853   1.916   1.452
  133SOL      O  133   2.589   1.553   1.458
  134SOL      O  134   2.593   2.003   1.456
  135SOL      O  135   2.700   1.542   0.986
  136SOL      O  136   2.848   1.642   1.458
  137SOL      O  137   2.465   1.921   1.685
  138SOL      O  138   2.466   1.874   1.151
  139SOL      O  139   2.597   1.797   0.709
  140SOL      O  140   2.717   1.337   0.997
  141SOL      O  141   2.870   1.500   1.071
  142SOL      O  142   2.980   1.543   1.678
  143SOL      O  143   2.984   2.008   1.676
  144SOL      O  144   2.468   1.647   1.687
  145SOL      O  145   0.904   1.645   2.132
  146SOL      O  146   1.303   1.907   1.902
  147SOL      O  147   1.433   1.998   2.126
  148SOL      O  148   1.253   1.906   2.496
  149SOL      O  149   0.854   1.618   2.316
  150SOL      O  150   1.226   2.280   2.271
  151SOL      O  151   1.295   1.633   1.913
  152SOL      O  152   1.036   1.557   2.284
  153SOL      O  153   0.797   1.992   2.414
  154SOL      O  154   0.910   1.919   2.127
  155SOL      O  155   1.045   2.001   1.902
  156SOL      O  156   1.035   1.543   1.913
  157SOL      O  157   1.423   1.541   2.137
  158SOL      O  158   1.148   1.506   2.406
  159SOL      O  159   1.227   1.866   2.602
  160SOL      O  160   0.814   1.551   2.629
  161SOL      O  161   0.788   2.421   2.930
  162SOL      O  162   1.138   2.532   2.788
  163SOL      O  163   1.501   2.769   2.960
  164SOL      O  164   1.172   2.610   3.203
  165SOL      O  165   1.076   1.969   3.442
  166SOL      O  166   0.869   2.867   3.175
  167SOL      O  167   1.323   2.051   2.961
  168SOL      O  168   1.300   2.221   3.141
  169SOL      O  169   0.958   2.180   3.323
  170SOL      O  170   0.812   2.766   2.965
  171SOL      O  171   0.815   2.735   2.872
  172SOL      O  172   1.321   2.362   2.690
  173SOL      O  173   1.551   2.223   2.955
  174SOL      O  174   1.521   2.184   3.464
  175SOL      O  175   1.539   2.780   3.433
  176SOL      O  176   0.876   2.366   3.545
  177SOL      O  177   2.463   0.906   2.128
  178SOL      O  178   2.858   1.176   1.902
  179SOL      O  179   2.984   1.274   2.126
  180SOL      O  180   2.827   1.514   2.502
  181SOL      O  181   2.535   1.079   2.272
  182SOL      O  182   2.697   1.263   2.357
  183SOL      O  183   2.851   0.902   1.913
  184SOL      O  184   3.012   0.944   2.529
  185SOL      O  185   2.237   1.278   2.614
  186SOL      O  186   2.471   1.180   2.126
  187SOL      O  187   2.604   1.277   1.906
  188SOL      O  188   2.592   0.813   1.904
  189SOL      O  189   2.985   0.817   2.137
  190SOL      O  190   2.970   0.471   2.815
  191SOL      O  191   3.012   1.202   2.267
  192SOL      O  192   2.488   1.164   2.780
  193SOL      O  193   0.922   2.790   0.373
  194SOL      O  194   1.281   2.532   0.010
  195SOL      O  195   1.223   2.348   0.332
  196SOL      O  196   1.530   2.579   0.426
  197SOL      O  197   0.865   2.262   0.677
  198SOL      O  198   0.918   2.507   0.730
  199SOL      O  199   1.590   2.303   0.070
  200SOL      O  200   1.366   2.312   0.479
  201SOL      O  201   1.214   2.650   0.766
  202SOL      O  202   0.928   2.611   0.386
  203SOL      O  203   1.013   2.730  -0.060
  204SOL      O  204   0.965   2.247   0.106
  205SOL      O  205   1.650   2.327   0.267
  206SOL      O  206   1.446   2.295   0.934
  207SOL      O  207   1.332   2.693   0.885
  208SOL      O  208   1.062   1.971   0.945
  209SOL      O  209   2.471   2.369   2.132
  210SOL      O  210   2.853   2.646   1.911
  211SOL      O  211   2.991   2.737   2.131
  212SOL      O  212   3.010   2.573   2.579
  213SOL      O  213   2.766   2.337   2.325
  214SOL      O  214   2.444   2.675   2.574
  215SOL      O  215   2.856   2.372   1.903
  216SOL      O  216   2.879   2.269   2.131
  217SOL      O  217   2.283   2.432   2.770
  218SOL      O  218   2.462   2.643   2.131
  219SOL      O  219   2.593   2.733   1.906
  220SOL      O  220   2.597   2.282   1.904
  221SOL      O  221   2.977   2.280   2.133
  222SOL      O  222   2.919   2.187   2.402
  223SOL      O  223   2.943   2.830   2.777
  224SOL      O  224   2.174   2.703   2.729
  225SOL      O  225   0.161   0.407   1.368
  226SOL      O  226   0.840   0.600   0.868
  227SOL      O  227   0.607   0.847   1.322
  228SOL      O  228   0.519   0.454   1.461
  229SOL      O  229   0.258   0.084   1.454
  230SOL      O  230   0.262   0.548   1.461
  231SOL      O  231   0.797   0.188   1.047
  232SOL      O  232   0.514   0.180   1.458
  233SOL      O  233   0.137   0.452   1.686
  234SOL      O  234   0.060   0.320   1.042
  235SOL      O  235   0.218   0.569   1.089
  236SOL      O  236   0.325   0.045   1.105
  237SOL      O  237   0.535  -0.085   1.164
  238SOL      O  238   0.650   0.088   1.678
  239SOL      O  239   0.657   0.545   1.680
  240SOL      O  240   0.129   0.177   1.677
  241SOL      O  241   1.728   2.402   0.370
  242SOL      O  242   2.274   2.636   0.126
  243SOL      O  243   2.319   2.646   0.344
  244SOL      O  244   2.233   2.719   0.303
  245SOL      O  245   1.890   2.278   0.497
  246SOL      O  246   1.821   2.576   0.721
  247SOL      O  247   2.171   2.150   0.189
  248SOL      O  248   2.044   2.216   0.608
  249SOL      O  249   1.670   2.566   0.732
  250SOL      O  250   1.862   2.729   0.301
  251SOL      O  251   2.035   2.761   0.267
  252SOL      O  252   1.617   2.582   0.119
  253SOL      O  253   2.058   2.294   0.428
  254SOL      O  254   2.294   2.107   0.870
  255SOL      O  255   1.977   2.638   0.961
  256SOL      O  256   1.686   2.560   0.675
  257SOL      O  257   0.210   1.559   1.302
  258SOL      O  258   0.430   1.995   0.935
  259SOL      O  259   0.511   1.754   1.081
  260SOL      O  260   0.519   1.916   1.452
  261SOL      O  261   0.263   1.553   1.463
  262SOL      O  262   0.262   2.011   1.452
  263SOL      O  263   0.390   1.578   0.952
  264SOL      O  264   0.522   1.642   1.453
  265SOL      O  265   0.131   1.921   1.676
  266SOL      O  266   0.141   2.101   1.196
  267SOL      O  267   0.419   1.878   0.935
  268SOL      O  268   0.263   1.504   1.084
  269SOL      O  269   0.584   1.725   1.029
  270SOL      O  270   0.650   1.550   1.678
  271SOL      O  271   0.649   2.008   1.676
  272SOL      O  272   0.126   1.647   1.682
  273SOL      O  273   0.793   0.326   1.048
  274SOL      O  274   1.120   0.371   0.978
  275SOL      O  275   1.376   0.329   1.054
  276SOL      O  276   1.298   0.454   1.452
  277SOL      O  277   1.043   0.084   1.458
  278SOL      O  278   1.040   0.548   1.452
  279SOL      O  279   1.365   0.362   1.101
  280SOL      O  280   1.300   0.180   1.453
  281SOL      O  281   0.918   0.458   1.681
  282SOL      O  282   0.827   0.691   1.227
  283SOL      O  283   1.189   0.336   0.938
  284SOL      O  284   1.070   0.204   1.248
  285SOL      O  285   1.367  -0.044   1.135
  286SOL      O  286   1.428   0.088   1.678
  287SOL      O  287   1.425   0.537   1.680
  288SOL      O  288   0.912   0.184   1.677
  289SOL      O  289   1.533   2.674   3.194
  290SOL      O  290   1.835   2.720   2.985
  291SOL      O  291   2.504   2.783   3.016
  292SOL      O  292   1.904   2.748   3.126
  293SOL      O  293   2.003   2.242   3.241
  294SOL      O  294   1.728   2.746   3.434
  295SOL      O  295   1.764   2.339   2.875
  296SOL      O  296   2.134   2.393   3.376
  297SOL      O  297   1.895   2.771   3.550
  298SOL      O  298   1.876   2.768   3.052
  299SOL      O  299   1.171   2.623   2.852
  300SOL      O  300   1.657   2.347   3.051
  301SOL      O  301   2.092   2.341   2.892
  302SOL      O  302   2.056   2.116   3.411
  303SOL      O  303   2.209   2.554   3.251
  304SOL      O  304   1.723   2.218   3.464
  305SOL      O  305   1.064   1.185  -0.026
  306SOL      O  306   1.416   1.062   0.106
  307SOL      O  307   1.560   1.317   0.484
  308SOL      O  308   1.324   1.137   0.563
  309SOL      O  309   0.942   0.594   0.445
  310SOL      O  310   0.953   1.317   0.524
  311SOL      O  311   1.240   0.800   0.271
  312SOL      O  312   1.311   1.080   0.579
  313SOL      O  313   0.716   1.269   0.772
  314SOL      O  314   0.671   1.186   0.263
  315SOL      O  315   1.029   1.327   0.203
  316SOL      O  316   1.194   0.694  -0.168
  317SOL      O  317   1.363   0.683   0.526
  318SOL      O  318   1.242   0.819   0.939
  319SOL      O  319   1.545   1.416   0.832
  320SOL      O  320   0.791   0.765   0.792
  321SOL      O  321   2.716   0.228   3.016
  322SOL      O  322   2.688   0.302   2.465
  323SOL      O  323   3.093   0.478   3.238
  324SOL      O  324   2.803   0.289   3.230
  325SOL      O  325   2.673   0.014   3.401
  326SOL      O  326   2.735   0.363   3.322
  327SOL      O  327   2.831   0.390   2.804
  328SOL      O  328   2.676  -0.194   3.168
  329SOL      O  329   2.393   0.315   3.403
  330SOL      O  330   2.610   0.296   2.941
  331SOL      O  331   2.817   0.288   2.829
  332SOL      O  332   2.501  -0.017   2.825
  333SOL      O  333   3.031  -0.019   3.230
  334SOL      O  334   2.926   0.156   3.370
  335SOL      O  335   3.012   0.693   3.457
  336SOL      O  336   2.331  -0.018   3.865
  337SOL      O  337   0.791   0.951   2.836
  338SOL      O  338   1.381   0.927   2.728
  339SOL      O  339   1.465   1.241   2.850
  340SOL      O  340   1.030   1.216   2.987
  341SOL      O  341   1.080   0.737   3.331
  342SOL      O  342   1.020   1.260   3.162
  343SOL      O  343   1.220   1.158   2.770
  344SOL      O  344   1.494   0.993   3.318
  345SOL      O  345   0.797   1.226   3.321
  346SOL      O  346   0.703   1.103   2.921
  347SOL      O  347   1.021   1.309   2.806
  348SOL      O  348   1.225   0.742   2.748
  349SOL      O  349   1.544   0.592   2.834
  350SOL      O  350   1.440   0.707   3.360
  351SOL      O  351   1.220   1.246   3.354
  352SOL      O  352   0.839   0.946   3.746
  353SOL      O  353   2.568   0.367   0.210
  354SOL      O  354   3.017   0.479   0.034
  355SOL      O  355   2.890   0.499   0.197
  356SOL      O  356   3.121   0.520   0.560
  357SOL      O  357   2.679  -0.017   0.466
  358SOL      O  358   2.603   0.878   0.569
  359SOL      O  359   3.283   0.169   0.151
  360SOL      O  360   2.827   0.182   0.531
  361SOL      O  361   2.492   0.551   0.869
  362SOL      O  362   2.491   0.261   0.232
  363SOL      O  363   2.703   0.581   0.241
  364SOL      O  364   2.792   0.196   0.072
  365SOL      O  365   3.112  -0.003   0.493
  366SOL      O  366   2.827  -0.012   0.894
  367SOL      O  367   2.983   0.583   1.004
  368SOL      O  368   2.591   0.138   0.734
  369SOL      O  369   1.748   0.287   1.201
  370SOL      O  370   2.121   0.147   0.962
  371SOL      O  371   2.174   0.486   1.128
  372SOL      O  372   2.076   0.454   1.461
  373SOL      O  373   1.813   0.084   1.454
  374SOL      O  374   1.818   0.548   1.461
  375SOL      O  375   2.160   0.275   1.176
  376SOL      O  376   2.071   0.180   1.458
  377SOL      O  377   1.685   0.452   1.681
  378SOL      O  378   1.891   0.316   1.503
  379SOL      O  379   1.966   0.364   0.719
  380SOL      O  380   1.627  -0.110   1.088
  381SOL      O  381   2.220   0.249   1.313
  382SOL      O  382   2.207   0.088   1.678
  383SOL      O  383   2.211   0.538   1.685
  384SOL      O  384   1.693   0.177   1.682
  385SOL      O  385   1.691   0.914   2.137
  386SOL      O  386   2.083   1.183   1.907
  387SOL      O  387   2.211   1.267   2.135
  388SOL      O  388   1.896   1.199   2.341
  389SOL      O  389   1.832   0.787   2.070
  390SOL      O  390   1.707   1.294   2.448
  391SOL      O  391   2.079   0.909   1.903
  392SOL      O  392   2.317   1.235   2.563
  393SOL      O  393   1.539   1.091   2.724
  394SOL      O  394   1.688   1.188   2.127
  395SOL      O  395   1.826   1.277   1.906
  396SOL      O  396   1.819   0.820   1.913
  397SOL      O  397   2.199   0.817   2.133
  398SOL      O  398   2.265   0.890   2.334
  399SOL      O  399   2.062   1.103   2.751
  400SOL      O  400   1.675   0.955   2.560
  401SOL      O  401   1.517   1.752   1.542
  402SOL      O  402   1.846   1.910   1.014
  403SOL      O  403   2.412   2.202   1.086
  404SOL      O  404   2.081   1.909   1.461
  405SOL      O  405   1.813   1.545   1.454
  406SOL      O  406   1.826   2.010   1.456
  407SOL      O  407   1.948   1.664   0.905
  408SOL      O  408   2.073   1.635   1.462
  409SOL      O  409   1.688   1.921   1.676
  410SOL      O  410   1.982   1.915   1.154
  411SOL      O  411   1.623   2.113   1.049
  412SOL      O  412   1.688   1.794   1.153
  413SOL      O  413   2.194   1.562   1.204
  414SOL      O  414   2.207   1.550   1.687
  415SOL      O  415   2.206   2.008   1.685
  416SOL      O  416   1.691   1.647   1.677
  417SOL      O  417   0.134   0.914   2.137
  418SOL      O  418   0.527   1.183   1.907
  419SOL      O  419   0.655   1.267   2.135
  420SOL      O  420   0.767   1.014   2.608
  421SOL      O  421   0.410   1.160   2.289
  422SOL      O  422   0.460   1.245   2.299
  423SOL      O  423   0.514   0.909   1.908
  424SOL      O  424   0.593   0.857   2.471
  425SOL      O  425  -0.079   1.304   2.529
  426SOL      O  426   0.131   1.188   2.127
  427SOL      O  427   0.270   1.277   1.906
  428SOL      O  428   0.258   0.813   1.913
  429SOL      O  429   0.650   0.817   2.128
  430SOL      O  430   0.380   0.759   2.787
  431SOL      O  431   0.732   1.105   2.763
  432SOL      O  432  -0.216   0.873   2.649
  433SOL      O  433   0.126   2.377   2.132
  434SOL      O  434   0.525   2.638   1.911
  435SOL      O  435   0.657   2.737   2.131
  436SOL      O  436   0.608   2.547   2.342
  437SOL      O  437   0.214   2.061   2.465
  438SOL      O  438   0.557   2.746   2.180
  439SOL      O  439   0.517   2.364   1.913
  440SOL      O  440   0.412   2.462   2.389
  441SOL      O  441   0.108   2.647   2.608
  442SOL      O  442   0.139   2.650   2.131
  443SOL      O  443   0.270   2.740   1.906
  444SOL      O  444   0.258   2.275   1.913
  445SOL      O  445   0.650   2.280   2.137
  446SOL      O  446   0.547   2.484   2.607
  447SOL      O  447   0.611   2.497   2.436
  448SOL      O  448   0.099   2.329   2.753
  449SOL      O  449   2.898   1.019   1.142
  450SOL      O  450   2.923   1.042   1.261
  451SOL      O  451   2.810   1.530   1.266
  452SOL      O  452   2.851   1.177   1.457
  453SOL      O  453   2.597   0.822   1.463
  454SOL      O  454   2.596   1.279   1.452
  455SOL      O  455   2.928   0.924   1.009
  456SOL      O  456   2.859   0.903   1.458
  457SOL      O  457   2.473   1.189   1.681
  458SOL      O  458   2.319   1.364   1.152
  459SOL      O  459   2.311   1.506   1.130
  460SOL      O  460   2.627   0.844   0.972
  461SOL      O  461   2.909   1.006   1.143
  462SOL      O  462   2.985   0.819   1.687
  463SOL      O  463   2.989   1.269   1.676
  464SOL      O  464   2.460   0.916   1.682
  465SOL      O  465   2.624   1.697   0.173
  466SOL      O  466   3.054   1.752   0.232
  467SOL      O  467   3.035   1.987   0.150
  468SOL      O  468   2.803   1.648   0.511
  469SOL      O  469   2.184   1.566   0.380
  470SOL      O  470   2.455   1.516   0.552
  471SOL      O  471   2.848   1.685   0.155
  472SOL      O  472   3.382   1.830   0.453
  473SOL      O  473   2.400   1.962   0.519
  474SOL      O  474   2.353   1.710   0.494
  475SOL      O  475   2.308   1.735   0.038
  476SOL      O  476   2.578   1.090   0.291
  477SOL      O  477   2.764   1.672   0.271
  478SOL      O  478   2.856   1.779   0.711
  479SOL      O  479   2.989   2.168   0.884
  480SOL      O  480   2.413   1.540   0.821
  481SOL      O  481   0.946   1.895   1.064
  482SOL      O  482   1.210   1.824   1.001
  483SOL      O  483   1.542   1.939   0.851
  484SOL      O  484   1.295   1.909   1.457
  485SOL      O  485   1.043   1.545   1.458
  486SOL      O  486   1.037   2.003   1.456
  487SOL      O  487   1.411   1.498   1.180
  488SOL      O  488   1.303   1.635   1.458
  489SOL      O  489   0.907   1.913   1.681
  490SOL      O  490   0.992   1.872   1.284
  491SOL      O  491   0.880   2.088   1.106
  492SOL      O  492   0.915   1.798   1.146
  493SOL      O  493   1.590   1.657   1.217
  494SOL      O  494   1.428   1.550   1.687
  495SOL      O  495   1.428   2.008   1.676
  496SOL      O  496   0.915   1.639   1.682
  497SOL      O  497   2.430   0.455   1.263
  498SOL      O  498   2.810   0.452   1.224
  499SOL      O  499   2.912   0.504   1.402
  500SOL      O  500   2.861   0.453   1.457
  501SOL      O  501   2.597   0.090   1.463
  502SOL      O  502   2.604   0.548   1.456
  503SOL      O  503   2.888   0.356   0.974
  504SOL      O  504   2.856   0.180   1.453
  505SOL      O  505   2.473   0.458   1.681
  506SOL      O  506   2.523   0.435   1.375
  507SOL      O  507   2.865   0.336   1.075
  508SOL      O  508   2.524   0.067   0.910
  509SOL      O  509   2.902   0.404   0.958
  510SOL      O  510   2.980   0.081   1.678
  511SOL      O  511   2.991   0.545   1.680
  512SOL      O  512   2.468   0.184   1.687
  513SOL      O  513   0.912   2.376   2.128
  514SOL      O  514   1.303   2.638   1.911
  515SOL      O  515   1.427   2.737   2.135
  516SOL      O  516   1.400   2.815   2.342
  517SOL      O  517   0.962   2.421   2.406
  518SOL      O  518   0.713   2.647   2.337
  519SOL      O  519   1.295   2.364   1.913
  520SOL      O  520   1.097   2.288   2.403
  521SOL      O  521   1.165   2.477   2.670
  522SOL      O  522   0.918   2.650   2.131
  523SOL      O  523   1.048   2.740   1.906
  524SOL      O  524   1.035   2.275   1.904
  525SOL      O  525   1.431   2.272   2.133
  526SOL      O  526   1.199   2.004   2.765
  527SOL      O  527   1.303   2.534   2.637
  528SOL      O  528   0.887   2.435   2.624
  529SOL      O  529   2.402   1.671   2.843
  530SOL      O  530   2.674   1.845   2.862
  531SOL      O  531   3.155   1.922   3.113
  532SOL      O  532   2.810   2.293   3.260
  533SOL      O  533   2.461   1.415   3.262
  534SOL      O  534   2.596   1.889   3.250
  535SOL      O  535   2.622   1.625   2.667
  536SOL      O  536   2.590   1.700   3.270
  537SOL      O  537   2.466   1.833   3.281
  538SOL      O  538   2.399   1.811   3.216
  539SOL      O  539   2.564   2.194   2.719
  540SOL      O  540   2.227   1.677   2.565
  541SOL      O  541   2.769   1.822   3.043
  542SOL      O  542   3.072   1.234   3.411
  543SOL      O  543   2.856   1.990   3.479
  544SOL      O  544   2.590   1.718   3.338
  545SOL      O  545   2.511   2.301   1.071
  546SOL      O  546   2.733   2.718   1.114
  547SOL      O  547   2.735   2.739   1.443
  548SOL      O  548   2.853   2.648   1.461
  549SOL      O  549   2.592   2.277   1.454
  550SOL      O  550   2.596   2.742   1.461
  551SOL      O  551   2.817   2.447   0.941
  552SOL      O  552   2.848   2.374   1.458
  553SOL      O  553   2.462   2.645   1.681
  554SOL      O  554   2.684   2.493   1.111
  555SOL      O  555   2.325   2.594   0.902
  556SOL      O  556   2.633   2.110   1.001
  557SOL      O  557   3.129   2.090   1.139
  558SOL      O  558   2.985   2.282   1.678
  559SOL      O  559   2.989   2.732   1.685
  560SOL      O  560   2.463   2.371   1.677
  561SOL      O  561   0.040   0.443   2.948
  562SOL      O  562   0.510   0.381   3.062
  563SOL      O  563   0.906   0.733   3.121
  564SOL      O  564   0.584   0.471   3.098
  565SOL      O  565   0.406   0.164   3.223
  566SOL      O  566   0.455   0.531   3.468
  567SOL      O  567   0.603  -0.060   2.861
  568SOL      O  568   0.882   0.305   3.339
  569SOL      O  569   0.066   0.403   3.409
  570SOL      O  570   0.052   0.294   3.087
  571SOL      O  571   0.397   0.564   3.130
  572SOL      O  572   0.385  -0.165   2.800
  573SOL      O  573   0.612   0.050   3.145
  574SOL      O  574   0.604   0.172   3.561
  575SOL      O  575   0.369   0.814   3.331
  576SOL      O  576   0.138   0.199   3.105
  577SOL      O  577   0.109   1.951   0.339
  578SOL      O  578   0.669   1.799   0.146
  579SOL      O  579   0.733   2.131   0.520
  580SOL      O  580   0.463   1.833   0.436
  581SOL      O  581   0.374   1.684   0.450
  582SOL      O  582   0.110   2.239   0.423
  583SOL      O  583   0.452   1.895   0.226
  584SOL      O  584   0.519   1.681   0.746
  585SOL      O  585   0.096   1.769   0.484
  586SOL      O  586   0.175   1.764   0.407
  587SOL      O  587   0.381   1.928   0.198
  588SOL      O  588   0.566   1.428  -0.023
  589SOL      O  589   0.474   1.572   0.167
  590SOL      O  590   0.561   1.505   0.976
  591SOL      O  591   0.646   1.997   0.891
  592SOL      O  592   0.311   1.659   0.951
  593SOL      O  593   0.070   0.430   0.283
  594SOL      O  594   0.389   0.469   0.189
  595SOL      O  595   0.864   0.476   0.527
  596SOL      O  596   0.521   0.596   0.504
  597SOL      O  597   0.180   0.193   0.612
  598SOL      O  598   0.166   0.501   0.418
  599SOL      O  599   0.504   0.109   0.078
  600SOL      O  600   0.499   0.114   0.651
  601SOL      O  601   0.358   0.493   0.607
  602SOL      O  602   0.037   0.392   0.517
  603SOL      O  603   0.380   0.438   0.187
  604SOL      O  604   0.152   0.289   0.063
  605SOL      O  605   0.390   0.050   0.583
  606SOL      O  606   0.573   0.191   0.948
  607SOL      O  607   0.570   0.682   0.777
  608SOL      O  608   0.147   0.488   0.693
  609SOL      O  609   1.691   2.377   2.137
  610SOL      O  610   2.083   2.646   1.907
  611SOL      O  611   2.206   2.737   2.135
  612SOL      O  612   1.969   2.311   2.083
  613SOL      O  613   1.696   2.210   2.779
  614SOL      O  614   2.055   2.955   2.098
  615SOL      O  615   2.079   2.372   1.913
  616SOL      O  616   2.171   2.123   2.528
  617SOL      O  617   1.502   2.699   2.544
  618SOL      O  618   1.688   2.650   2.127
  619SOL      O  619   1.823   2.733   1.902
  620SOL      O  620   1.819   2.282   1.913
  621SOL      O  621   2.207   2.280   2.137
  622SOL      O  622   2.176   2.329   2.380
  623SOL      O  623   2.146   2.387   2.527
  624SOL      O  624   1.802   2.551   2.375
  625SOL      O  625   0.156   1.573   3.330
  626SOL      O  626   0.411   1.713   2.703
  627SOL      O  627   0.539   2.050   2.813
  628SOL      O  628   0.589   1.773   3.200
  629SOL      O  629   0.272   1.695   3.167
  630SOL      O  630   0.252   2.196   3.478
  631SOL      O  631   0.605   1.739   2.778
  632SOL      O  632   0.537   1.795   3.399
  633SOL      O  633  -0.042   1.811   3.351
  634SOL      O  634   0.079   2.148   2.876
  635SOL      O  635   0.315   1.984   2.608
  636SOL      O  636   0.326   1.579   2.761
  637SOL      O  637   0.401   1.203   3.096
  638SOL      O  638   0.607   1.378   3.762
  639SOL      O  639   0.854   1.696   3.298
  640SOL      O  640   0.372   1.656   3.640
  641SOL      O  641   0.915   0.906   2.132
  642SOL      O  642   1.298   1.183   1.902
  643SOL      O  643   1.425   1.267   2.131
  644SOL      O  644   1.180   1.413   2.273
  645SOL      O  645   0.967   0.622   2.301
  646SOL      O  646   1.018   1.473   2.438
  647SOL      O  647   1.300   0.909   1.913
  648SOL      O  648   1.200   0.863   2.178
  649SOL      O  649   0.777   1.380   2.553
  650SOL      O  650   0.915   1.180   2.136
  651SOL      O  651   1.037   1.270   1.906
  652SOL      O  652   1.043   0.813   1.908
  653SOL      O  653   1.431   0.810   2.133
  654SOL      O  654   1.509   0.925   2.714
  655SOL      O  655   1.280   1.233   2.511
  656SOL      O  656   0.805   0.933   2.473
  657SOL      O  657   0.953   0.094   0.094
  658SOL      O  658   1.052   0.477   0.025
  659SOL      O  659   1.602   0.480   0.259
  660SOL      O  660   1.235   0.544   0.665
  661SOL      O  661   1.118   0.273   0.575
  662SOL      O  662   1.058   0.583   0.541
  663SOL      O  663   1.325   0.221  -0.037
  664SOL      O  664   1.065   0.095   0.711
  665SOL      O  665   0.987   0.529   0.682
  666SOL      O  666   1.014   0.366   0.329
  667SOL      O  667   0.979   0.569   0.003
  668SOL      O  668   0.886   0.323   0.153
  669SOL      O  669   1.171  -0.101   0.646
  670SOL      O  670   1.328  -0.192   0.795
  671SOL      O  671   1.548   0.538   0.325
  672SOL      O  672   0.864   0.089   0.873
  673SOL      O  673   2.471   0.175   2.132
  674SOL      O  674   2.861   0.452   1.907
  675SOL      O  675   2.984   0.543   2.135
  676SOL      O  676   2.985   0.489   2.052
  677SOL      O  677   2.389   0.294   2.437
  678SOL      O  678   2.642   0.492   2.203
  679SOL      O  679   2.856   0.178   1.903
  680SOL      O  680   2.966   0.242   2.129
  681SOL      O  681   2.853   0.666   2.600
  682SOL      O  682   2.462   0.450   2.131
  683SOL      O  683   2.601   0.538   1.911
  684SOL      O  684   2.600   0.082   1.908
  685SOL      O  685   2.985   0.087   2.128
  686SOL      O  686   3.250   0.041   2.443
  687SOL      O  687   2.731   0.409   2.748
  688SOL      O  688   2.041   0.345   2.362
  689SOL      O  689   1.053   0.026   3.259
  690SOL      O  690   1.352   0.420   2.795
  691SOL      O  691   1.643   0.260   2.940
  692SOL      O  692   1.165   0.566   3.359
  693SOL      O  693   1.086   0.226   3.097
  694SOL      O  694   0.980   0.601   3.236
  695SOL      O  695   1.184   0.303   2.953
  696SOL      O  696   1.421   0.334   3.206
  697SOL      O  697   0.987   0.202   3.358
  698SOL      O  698   0.983   0.747   2.784
  699SOL      O  699   1.227   0.688   2.976
  700SOL      O  700   1.088  -0.173   2.686
  701SOL      O  701   1.630   0.052   3.391
  702SOL      O  702   1.550   0.106   3.576
  703SOL      O  703   1.383   0.718   3.433
  704SOL      O  704   0.845   0.079   3.672
  705SOL      O  705   1.879   0.256   0.217
  706SOL      O  706   2.068   0.321   0.009
  707SOL      O  707   2.101   0.447   0.274
  708SOL      O  708   2.114   0.553   0.462
  709SOL      O  709   1.961   0.028   0.620
  710SOL      O  710   1.628   0.352   0.698
  711SOL      O  711   1.931  -0.032   0.227
  712SOL      O  712   2.139   0.039   0.734
  713SOL      O  713   1.592   0.686   0.889
  714SOL      O  714   1.480   0.361   0.268
  715SOL      O  715   1.687   0.644   0.158
  716SOL      O  716   1.942   0.103  -0.018
  717SOL      O  717   1.941   0.195   0.381
  718SOL      O  718   2.153   0.064   0.845
  719SOL      O  719   2.133   0.463   0.729
  720SOL      O  720   1.644   0.479   0.732
  721SOL      O  721   1.600   0.201   2.851
  722SOL      O  722   2.077   0.411   2.892
  723SOL      O  723   2.133   0.671   2.938
  724SOL      O  724   2.203   0.614   3.191
  725SOL      O  725   2.136   0.098   2.969
  726SOL      O  726   1.868   0.679   3.199
  727SOL      O  727   2.039   0.190   2.660
  728SOL      O  728   1.976   0.259   3.078
  729SOL      O  729   1.631   0.723   3.388
  730SOL      O  730   1.655   0.563   2.892
  731SOL      O  731   1.852   0.642   2.826
  732SOL      O  732   1.948  -0.317   2.829
  733SOL      O  733   2.081   0.120   3.113
  734SOL      O  734   2.178   0.273   3.379
  735SOL      O  735   2.206   0.569   3.586
  736SOL      O  736   1.650   0.181   3.585
  737SOL      O  737   2.047   1.725   0.172
  738SOL      O  738   2.132   1.913   0.235
  739SOL      O  739   2.154   1.951   0.517
  740SOL      O  740   2.201   1.874   0.349
  741SOL      O  741   2.063   1.358   0.666
  742SOL      O  742   1.847   1.975   0.482
  743SOL      O  743   2.111   1.688   0.132
  744SOL      O  744   1.916   1.541   0.816
  745SOL      O  745   1.870   1.936   0.845
  746SOL      O  746   1.608   1.999   0.180
  747SOL      O  747   1.872   1.858  -0.172
  748SOL      O  748   1.876   1.718   0.075
  749SOL      O  749   2.145   1.541   0.275
  750SOL      O  750   2.395   1.580   0.805
  751SOL      O  751   2.058   1.808   0.795
  752SOL      O  752   1.502   1.586   0.682
  753SOL      O  753   0.073   0.880   1.385
  754SOL      O  754   0.771   1.144   1.020
  755SOL      O  755   0.625   1.290   1.426
  756SOL      O  756   0.517   1.177   1.457
  757SOL      O  757   0.263   0.822   1.463
  758SOL      O  758   0.262   1.279   1.452
  759SOL      O  759   0.417   0.818   1.001
  760SOL      O  760   0.525   0.903   1.458
  761SOL      O  761   0.139   1.189   1.681
  762SOL      O  762  -0.013   1.255   1.017
  763SOL      O  763   0.329   1.480   1.017
  764SOL      O  764  -0.002   1.057   1.197
  765SOL      O  765   0.855   0.771   1.269
  766SOL      O  766   0.650   0.819   1.687
  767SOL      O  767   0.649   1.276   1.676
  768SOL      O  768   0.134   0.916   1.687
  769SOL      O  769   1.826   1.382   3.006
  770SOL      O  770   2.276   1.759   2.788
  771SOL      O  771   2.464   1.909   2.893
  772SOL      O  772   2.012   1.722   3.347
  773SOL      O  773   1.805   1.585   3.287
  774SOL      O  774   1.699   2.040   3.139
  775SOL      O  775   1.989   1.448   3.053
  776SOL      O  776   1.988   1.719   3.434
  777SOL      O  777   1.774   1.800   3.572
  778SOL      O  778   1.541   1.996   2.982
  779SOL      O  779   1.911   2.136   2.862
  780SOL      O  780   1.717   1.655   2.815
  781SOL      O  781   2.268   1.362   3.058
  782SOL      O  782   2.103   1.477   3.399
  783SOL      O  783   2.358   2.048   3.500
  784SOL      O  784   1.510   1.481   3.469
  785SOL      O  785   1.800   0.718   1.176
  786SOL      O  786   2.241   1.305   1.010
  787SOL      O  787   2.070   1.263   1.080
  788SOL      O  788   2.076   1.185   1.461
  789SOL      O  789   1.819   0.822   1.463
  790SOL      O  790   1.815   1.272   1.456
  791SOL      O  791   2.017   0.807   1.275
  792SOL      O  792   2.079   0.911   1.453
  793SOL      O  793   1.693   1.182   1.686
  794SOL      O  794   1.927   1.053   0.996
  795SOL      O  795   1.769   1.378   1.176
  796SOL      O  796   1.811   0.911   1.069
  797SOL      O  797   2.075   0.915   1.353
  798SOL      O  798   2.202   0.812   1.678
  799SOL      O  799   2.214   1.276   1.680
  800SOL      O  800   1.685   0.908   1.687
  801SOL      O  801   0.060   2.464   1.272
  802SOL      O  802   0.727   2.978   0.947
  803SOL      O  803   0.574   2.730   1.313
  804SOL      O  804   0.527   2.648   1.457
  805SOL      O  805   0.263   2.284   1.454
  806SOL      O  806   0.268   2.734   1.461
  807SOL      O  807   0.544   2.380   0.897
  808SOL      O  808   0.522   2.374   1.453
  809SOL      O  809   0.137   2.645   1.686
  810SOL      O  810   0.186   2.869   1.217
  811SOL      O  811   0.338   2.792   0.833
  812SOL      O  812   0.241   2.122   1.257
  813SOL      O  813   0.568   2.615   1.176
  814SOL      O  814   0.642   2.281   1.682
  815SOL      O  815   0.649   2.739   1.685
  816SOL      O  816   0.137   2.371   1.682
  817SOL      O  817   1.053   1.575   0.463
  818SOL      O  818   1.245   1.789   0.271
  819SOL      O  819   1.218   2.201   0.512
  820SOL      O  820   1.197   1.970   0.792
  821SOL      O  821   0.866   1.575   0.525
  822SOL      O  822   1.303   2.166   0.602
  823SOL      O  823   1.166   1.636   0.048
  824SOL      O  824   1.094   1.312   0.433
  825SOL      O  825   1.088   1.769   0.694
  826SOL      O  826   1.015   2.051   0.297
  827SOL      O  827   1.226   2.110   0.214
  828SOL      O  828   1.221   1.458   0.224
  829SOL      O  829   1.237   1.671   0.272
  830SOL      O  830   1.395   1.358   0.690
  831SOL      O  831   1.438   2.161   0.462
  832SOL      O  832   0.772   1.561   0.846
  833SOL      O  833   2.456   1.043   3.274
  834SOL      O  834   2.521   1.251   2.929
  835SOL      O  835   3.071   1.377   3.003
  836SOL      O  836   2.917   1.187   3.110
  837SOL      O  837   2.655   0.976   3.194
  838SOL      O  838   2.695   1.336   3.162
  839SOL      O  839   2.987   1.122   2.817
  840SOL      O  840   2.988   0.998   3.034
  841SOL      O  841   2.511   1.467   3.497
  842SOL      O  842   2.542   1.331   3.020
  843SOL      O  843   2.621   1.330   2.661
  844SOL      O  844   2.656   0.861   2.795
  845SOL      O  845   3.033   0.733   3.250
  846SOL      O  846   3.079   1.062   3.677
  847SOL      O  847   2.746   1.391   3.617
  848SOL      O  848   2.371   1.215   3.378
  849SOL      O  849   0.759   2.487   1.197
  850SOL      O  850   1.000   2.815   0.980
  851SOL      O  851   1.431   2.629   1.463
  852SOL      O  852   1.306   2.648   1.457
  853SOL      O  853   1.035   2.277   1.463
  854SOL      O  854   1.045   2.734   1.461
  855SOL      O  855   1.347   2.528   1.025
  856SOL      O  856   1.292   2.374   1.458
  857SOL      O  857   0.910   2.652   1.685
  858SOL      O  858   0.736   2.512   1.352
  859SOL      O  859   0.890   2.579   0.995
  860SOL      O  860   0.668   2.356   1.010
  861SOL      O  861   1.621   2.244   1.294
  862SOL      O  862   1.421   2.281   1.682
  863SOL      O  863   1.428   2.739   1.685
  864SOL      O  864   0.904   2.378   1.682
  865SOL      O  865   0.947   1.603   3.084
  866SOL      O  866   1.196   1.987   2.873
  867SOL      O  867   1.602   2.103   2.951
  868SOL      O  868   0.954   2.090   3.307
  869SOL      O  869   0.767   1.644   3.240
  870SOL      O  870   1.218   1.821   3.083
  871SOL      O  871   1.425   1.569   2.792
  872SOL      O  872   1.370   1.599   3.487
  873SOL      O  873   0.856   1.683   3.487
  874SOL      O  874   0.901   1.616   3.008
  875SOL      O  875   1.062   1.810   2.986
  876SOL      O  876   1.042   1.475   2.869
  877SOL      O  877   1.307   1.587   2.808
  878SOL      O  878   1.333   1.239   3.457
  879SOL      O  879   1.148   1.726   3.385
  880SOL      O  880   1.133   1.625   3.553
  881SOL      O  881   2.361   0.731   0.372
  882SOL      O  882   2.838   1.146   0.331
  883SOL      O  883   2.825   1.070  -0.017
  884SOL      O  884   2.667   1.037   0.619
  885SOL      O  885   2.666   1.012   0.666
  886SOL      O  886   2.658   1.004   0.561
  887SOL      O  887   2.807   1.009   0.033
  888SOL      O  888   2.678   0.637   0.481
  889SOL      O  889   2.323   1.277   0.494
  890SOL      O  890   2.603   1.019   0.195
  891SOL      O  891   2.532   1.528  -0.139
  892SOL      O  892   2.492   0.578   0.185
  893SOL      O  893   3.074   0.645   0.487
  894SOL      O  894   2.981   0.751   0.990
  895SOL      O  895   2.885   1.327   0.655
  896SOL      O  896   2.626   1.090   0.995
  897SOL      O  897   2.460   1.645   2.132
  898SOL      O  898   2.853   1.914   1.902
  899SOL      O  899   2.984   2.006   2.126
  900SOL      O  900   3.044   1.818   1.970
  901SOL      O  901   2.463   1.686   2.414
  902SOL      O  902   2.642   1.856   2.192
  903SOL      O  903   2.856   1.640   1.903
  904SOL      O  904   2.804   1.518   2.524
  905SOL      O  905   2.428   1.827   2.495
  906SOL      O  906   2.465   1.919   2.136
  907SOL      O  907   2.596   2.009   1.911
  908SOL      O  908   2.597   1.551   1.913
  909SOL      O  909   2.985   1.548   2.128
  910SOL      O  910   2.984   1.538   2.643
  911SOL      O  911   2.999   2.096   2.506
  912SOL      O  912   2.491   1.755   2.744
  913SOL      O  913   2.286   2.279   3.041
  914SOL      O  914   2.872   2.686   2.893
  915SOL      O  915   3.190   2.809   3.020
  916SOL      O  916   2.901   2.591   3.138
  917SOL      O  917   2.758   2.172   3.110
  918SOL      O  918   2.670   2.876   3.279
  919SOL      O  919   2.688   2.222   3.056
  920SOL      O  920   2.917   2.368   3.109
  921SOL      O  921   2.619   2.660   3.455
  922SOL      O  922   2.684   2.591   2.867
  923SOL      O  923   2.458   2.752   2.324
  924SOL      O  924   2.606   2.054   2.806
  925SOL      O  925   3.137   2.206   3.002
  926SOL      O  926   2.844   2.174   3.391
  927SOL      O  927   3.032   2.758   3.440
  928SOL      O  928   2.284   2.404   3.507
  929SOL      O  929   2.658   2.329   0.535
  930SOL      O  930   2.949   2.692   0.154
  931SOL      O  931   2.798   2.484   0.389
  932SOL      O  932   2.664   2.996   0.780
  933SOL      O  933   2.515   2.134   0.334
  934SOL      O  934   2.575   2.562   0.599
  935SOL      O  935   2.960   2.480   0.299
  936SOL      O  936   2.794   2.013   0.755
  937SOL      O  937   2.427   2.732   0.639
  938SOL      O  938   2.510   2.686   0.454
  939SOL      O  939   2.705   2.787   0.010
  940SOL      O  940   2.146   2.453   0.011
  941SOL      O  941   3.221   2.141   0.454
  942SOL      O  942   2.819   2.514   0.854
  943SOL      O  943   2.908   2.602   0.894
  944SOL      O  944   2.410   2.328   0.713
  945SOL      O  945   0.137   0.175   2.132
  946SOL      O  946   0.527   0.452   1.907
  947SOL      O  947   0.649   0.543   2.135
  948SOL      O  948   0.148   0.548   2.362
  949SOL      O  949   0.456   0.069   2.162
  950SOL      O  950   0.474   0.784   2.366
  951SOL      O  951   0.522   0.178   1.903
  952SOL      O  952   0.482   0.019   2.479
  953SOL      O  953   0.129   0.845   2.606
  954SOL      O  954   0.129   0.450   2.131
  955SOL      O  955   0.268   0.538   1.911
  956SOL      O  956   0.263   0.089   1.904
  957SOL      O  957   0.650   0.087   2.128
  958SOL      O  958   0.608   0.161   2.669
  959SOL      O  959   0.785   0.258   2.500
  960SOL      O  960  -0.012   0.165   2.391
  961SOL      O  961   1.817   2.251   1.015
  962SOL      O  962   2.112   2.525   1.190
  963SOL      O  963   2.174   2.831   1.317
  964SOL      O  964   2.081   2.640   1.452
  965SOL      O  965   1.811   2.284   1.458
  966SOL      O  966   1.823   2.734   1.461
  967SOL      O  967   1.810   2.603   0.988
  968SOL      O  968   2.073   2.366   1.453
  969SOL      O  969   1.685   2.645   1.681
  970SOL      O  970   1.675   2.223   1.075
  971SOL      O  971   1.971   2.600   1.005
  972SOL      O  972   1.959   2.401   1.264
  973SOL      O  973   2.072   2.203   1.408
  974SOL      O  974   2.199   2.281   1.682
  975SOL      O  975   2.206   2.739   1.676
  976SOL      O  976   1.685   2.371   1.687
  977SOL      O  977   0.134   1.645   2.137
  978SOL      O  978   0.525   1.907   1.902
  979SOL      O  979   0.649   2.006   2.126
  980SOL      O  980   0.486   1.908   2.432
  981SOL      O  981   0.248   1.676   2.443
  982SOL      O  982   0.399   2.054   2.319
  983SOL      O  983   0.517   1.633   1.903
  984SOL      O  984   0.406   1.600   2.643
  985SOL      O  985   0.087   2.018   2.687
  986SOL      O  986   0.131   1.919   2.127
  987SOL      O  987   0.268   2.001   1.902
  988SOL      O  988   0.255   1.551   1.908
  989SOL      O  989   0.645   1.541   2.128
  990SOL      O  990   0.695   1.333   2.713
  991SOL      O  991   0.616   1.942   2.561
  992SOL      O  992   0.085   1.690   2.560
  993SOL      O  993   0.915   0.175   2.132
  994SOL      O  994   1.303   0.445   1.911
  995SOL      O  995   1.433   0.536   2.135
  996SOL      O  996   1.114   0.706   2.389
  997SOL      O  997   0.726  -0.085   2.328
  998SOL      O  998   1.139   0.486   2.385
  999SOL      O  999   1.303   0.170   1.908
 1000SOL      O 1000   1.195   0.217   2.309
 1001SOL      O 1001   0.847   0.562   2.548
 1002SOL      O 1002   0.907   0.450   2.131
 1003SOL      O 1003   1.045   0.538   1.911
 1004SOL      O 1004   1.040   0.089   1.904
 1005SOL      O 1005   1.428   0.087   2.137
 1006SOL      O 1006   1.526   0.174   2.741
 1007SOL      O 1007   1.425   0.517   2.872
 1008SOL      O 1008   1.082   0.217   2.502
 1009SOL      O 1009   0.867   1.035   1.229
 1010SOL      O 1010   1.014   1.290   1.049
 1011SOL      O 1011   1.951   1.316   1.135
 1012SOL      O 1012   1.303   1.177   1.461
 1013SOL      O 1013   1.040   0.822   1.454
 1014SOL      O 1014   1.045   1.272   1.461
 1015SOL      O 1015   1.208   1.040   1.098
 1016SOL      O 1016   1.303   0.903   1.458
 1017SOL      O 1017   0.907   1.182   1.681
 1018SOL      O 1018   0.985   1.313   1.188
 1019SOL      O 1019   1.101   1.160   1.062
 1020SOL      O 1020   0.788   0.951   1.072
 1021SOL      O 1021   1.329   0.741   1.414
 1022SOL      O 1022   1.423   0.812   1.687
 1023SOL      O 1023   1.436   1.276   1.680
 1024SOL      O 1024   0.915   0.908   1.682
   3.11194   2.92526   3.59474
